+ 0.1 0 1 tcp 40 ------- 1 0.0 2.0 0 0
- 0.1 0 1 tcp 40 ------- 1 0.0 2.0 0 0
r 0.12016 0 1 tcp 40 ------- 1 0.0 2.0 0 0
+ 0.12016 1 2 tcp 40 ------- 1 0.0 2.0 0 0
- 0.12016 1 2 tcp 40 ------- 1 0.0 2.0 0 0
r 0.16048 1 2 tcp 40 ------- 1 0.0 2.0 0 0
+ 0.16048 2 1 ack 40 ------- 1 2.0 0.0 0 1
- 0.16048 2 1 ack 40 ------- 1 2.0 0.0 0 1
r 0.2008 2 1 ack 40 ------- 1 2.0 0.0 0 1
+ 0.2008 1 0 ack 40 ------- 1 2.0 0.0 0 1
- 0.2008 1 0 ack 40 ------- 1 2.0 0.0 0 1
r 0.22096 1 0 ack 40 ------- 1 2.0 0.0 0 1
+ 0.22096 0 1 tcp 1040 ------- 1 0.0 2.0 1 2
- 0.22096 0 1 tcp 1040 ------- 1 0.0 2.0 1 2
+ 0.22096 0 1 tcp 1040 ------- 1 0.0 2.0 2 3
- 0.22512 0 1 tcp 1040 ------- 1 0.0 2.0 2 3
r 0.24512 0 1 tcp 1040 ------- 1 0.0 2.0 1 2
+ 0.24512 1 2 tcp 1040 ------- 1 0.0 2.0 1 2
- 0.24512 1 2 tcp 1040 ------- 1 0.0 2.0 1 2
r 0.24928 0 1 tcp 1040 ------- 1 0.0 2.0 2 3
+ 0.24928 1 2 tcp 1040 ------- 1 0.0 2.0 2 3
- 0.25344 1 2 tcp 1040 ------- 1 0.0 2.0 2 3
r 0.29344 1 2 tcp 1040 ------- 1 0.0 2.0 1 2
+ 0.29344 2 1 ack 40 ------- 1 2.0 0.0 1 4
- 0.29344 2 1 ack 40 ------- 1 2.0 0.0 1 4
r 0.30176 1 2 tcp 1040 ------- 1 0.0 2.0 2 3
+ 0.30176 2 1 ack 40 ------- 1 2.0 0.0 2 5
- 0.30176 2 1 ack 40 ------- 1 2.0 0.0 2 5
r 0.33376 2 1 ack 40 ------- 1 2.0 0.0 1 4
+ 0.33376 1 0 ack 40 ------- 1 2.0 0.0 1 4
- 0.33376 1 0 ack 40 ------- 1 2.0 0.0 1 4
r 0.34208 2 1 ack 40 ------- 1 2.0 0.0 2 5
+ 0.34208 1 0 ack 40 ------- 1 2.0 0.0 2 5
- 0.34208 1 0 ack 40 ------- 1 2.0 0.0 2 5
r 0.35392 1 0 ack 40 ------- 1 2.0 0.0 1 4
+ 0.35392 0 1 tcp 1040 ------- 1 0.0 2.0 3 6
- 0.35392 0 1 tcp 1040 ------- 1 0.0 2.0 3 6
+ 0.35392 0 1 tcp 1040 ------- 1 0.0 2.0 4 7
- 0.35808 0 1 tcp 1040 ------- 1 0.0 2.0 4 7
r 0.36224 1 0 ack 40 ------- 1 2.0 0.0 2 5
+ 0.36224 0 1 tcp 1040 ------- 1 0.0 2.0 5 8
+ 0.36224 0 1 tcp 1040 ------- 1 0.0 2.0 6 9
- 0.36224 0 1 tcp 1040 ------- 1 0.0 2.0 5 8
- 0.3664 0 1 tcp 1040 ------- 1 0.0 2.0 6 9
r 0.37808 0 1 tcp 1040 ------- 1 0.0 2.0 3 6
+ 0.37808 1 2 tcp 1040 ------- 1 0.0 2.0 3 6
- 0.37808 1 2 tcp 1040 ------- 1 0.0 2.0 3 6
r 0.38224 0 1 tcp 1040 ------- 1 0.0 2.0 4 7
+ 0.38224 1 2 tcp 1040 ------- 1 0.0 2.0 4 7
r 0.3864 0 1 tcp 1040 ------- 1 0.0 2.0 5 8
+ 0.3864 1 2 tcp 1040 ------- 1 0.0 2.0 5 8
- 0.3864 1 2 tcp 1040 ------- 1 0.0 2.0 4 7
r 0.39056 0 1 tcp 1040 ------- 1 0.0 2.0 6 9
+ 0.39056 1 2 tcp 1040 ------- 1 0.0 2.0 6 9
- 0.39472 1 2 tcp 1040 ------- 1 0.0 2.0 5 8
- 0.40304 1 2 tcp 1040 ------- 1 0.0 2.0 6 9
r 0.4264 1 2 tcp 1040 ------- 1 0.0 2.0 3 6
+ 0.4264 2 1 ack 40 ------- 1 2.0 0.0 3 10
- 0.4264 2 1 ack 40 ------- 1 2.0 0.0 3 10
r 0.43472 1 2 tcp 1040 ------- 1 0.0 2.0 4 7
+ 0.43472 2 1 ack 40 ------- 1 2.0 0.0 4 11
- 0.43472 2 1 ack 40 ------- 1 2.0 0.0 4 11
r 0.44304 1 2 tcp 1040 ------- 1 0.0 2.0 5 8
+ 0.44304 2 1 ack 40 ------- 1 2.0 0.0 5 12
- 0.44304 2 1 ack 40 ------- 1 2.0 0.0 5 12
r 0.45136 1 2 tcp 1040 ------- 1 0.0 2.0 6 9
+ 0.45136 2 1 ack 40 ------- 1 2.0 0.0 6 13
- 0.45136 2 1 ack 40 ------- 1 2.0 0.0 6 13
r 0.46672 2 1 ack 40 ------- 1 2.0 0.0 3 10
+ 0.46672 1 0 ack 40 ------- 1 2.0 0.0 3 10
- 0.46672 1 0 ack 40 ------- 1 2.0 0.0 3 10
r 0.47504 2 1 ack 40 ------- 1 2.0 0.0 4 11
+ 0.47504 1 0 ack 40 ------- 1 2.0 0.0 4 11
- 0.47504 1 0 ack 40 ------- 1 2.0 0.0 4 11
r 0.48336 2 1 ack 40 ------- 1 2.0 0.0 5 12
+ 0.48336 1 0 ack 40 ------- 1 2.0 0.0 5 12
- 0.48336 1 0 ack 40 ------- 1 2.0 0.0 5 12
r 0.48688 1 0 ack 40 ------- 1 2.0 0.0 3 10
+ 0.48688 0 1 tcp 1040 ------- 1 0.0 2.0 7 14
- 0.48688 0 1 tcp 1040 ------- 1 0.0 2.0 7 14
+ 0.48688 0 1 tcp 1040 ------- 1 0.0 2.0 8 15
- 0.49104 0 1 tcp 1040 ------- 1 0.0 2.0 8 15
r 0.49168 2 1 ack 40 ------- 1 2.0 0.0 6 13
+ 0.49168 1 0 ack 40 ------- 1 2.0 0.0 6 13
- 0.49168 1 0 ack 40 ------- 1 2.0 0.0 6 13
r 0.4952 1 0 ack 40 ------- 1 2.0 0.0 4 11
+ 0.4952 0 1 tcp 1040 ------- 1 0.0 2.0 9 16
+ 0.4952 0 1 tcp 1040 ------- 1 0.0 2.0 10 17
- 0.4952 0 1 tcp 1040 ------- 1 0.0 2.0 9 16
- 0.49936 0 1 tcp 1040 ------- 1 0.0 2.0 10 17
r 0.50352 1 0 ack 40 ------- 1 2.0 0.0 5 12
+ 0.50352 0 1 tcp 1040 ------- 1 0.0 2.0 11 18
+ 0.50352 0 1 tcp 1040 ------- 1 0.0 2.0 12 19
- 0.50352 0 1 tcp 1040 ------- 1 0.0 2.0 11 18
- 0.50768 0 1 tcp 1040 ------- 1 0.0 2.0 12 19
r 0.51104 0 1 tcp 1040 ------- 1 0.0 2.0 7 14
+ 0.51104 1 2 tcp 1040 ------- 1 0.0 2.0 7 14
- 0.51104 1 2 tcp 1040 ------- 1 0.0 2.0 7 14
r 0.51184 1 0 ack 40 ------- 1 2.0 0.0 6 13
+ 0.51184 0 1 tcp 1040 ------- 1 0.0 2.0 13 20
+ 0.51184 0 1 tcp 1040 ------- 1 0.0 2.0 14 21
- 0.51184 0 1 tcp 1040 ------- 1 0.0 2.0 13 20
r 0.5152 0 1 tcp 1040 ------- 1 0.0 2.0 8 15
+ 0.5152 1 2 tcp 1040 ------- 1 0.0 2.0 8 15
- 0.516 0 1 tcp 1040 ------- 1 0.0 2.0 14 21
r 0.51936 0 1 tcp 1040 ------- 1 0.0 2.0 9 16
+ 0.51936 1 2 tcp 1040 ------- 1 0.0 2.0 9 16
- 0.51936 1 2 tcp 1040 ------- 1 0.0 2.0 8 15
r 0.52352 0 1 tcp 1040 ------- 1 0.0 2.0 10 17
+ 0.52352 1 2 tcp 1040 ------- 1 0.0 2.0 10 17
r 0.52768 0 1 tcp 1040 ------- 1 0.0 2.0 11 18
+ 0.52768 1 2 tcp 1040 ------- 1 0.0 2.0 11 18
- 0.52768 1 2 tcp 1040 ------- 1 0.0 2.0 9 16
r 0.53184 0 1 tcp 1040 ------- 1 0.0 2.0 12 19
+ 0.53184 1 2 tcp 1040 ------- 1 0.0 2.0 12 19
- 0.536 1 2 tcp 1040 ------- 1 0.0 2.0 10 17
r 0.536 0 1 tcp 1040 ------- 1 0.0 2.0 13 20
+ 0.536 1 2 tcp 1040 ------- 1 0.0 2.0 13 20
r 0.54016 0 1 tcp 1040 ------- 1 0.0 2.0 14 21
+ 0.54016 1 2 tcp 1040 ------- 1 0.0 2.0 14 21
- 0.54432 1 2 tcp 1040 ------- 1 0.0 2.0 11 18
- 0.55264 1 2 tcp 1040 ------- 1 0.0 2.0 12 19
r 0.55936 1 2 tcp 1040 ------- 1 0.0 2.0 7 14
+ 0.55936 2 1 ack 40 ------- 1 2.0 0.0 7 22
- 0.55936 2 1 ack 40 ------- 1 2.0 0.0 7 22
- 0.56096 1 2 tcp 1040 ------- 1 0.0 2.0 13 20
r 0.56768 1 2 tcp 1040 ------- 1 0.0 2.0 8 15
+ 0.56768 2 1 ack 40 ------- 1 2.0 0.0 8 23
- 0.56768 2 1 ack 40 ------- 1 2.0 0.0 8 23
- 0.56928 1 2 tcp 1040 ------- 1 0.0 2.0 14 21
r 0.576 1 2 tcp 1040 ------- 1 0.0 2.0 9 16
+ 0.576 2 1 ack 40 ------- 1 2.0 0.0 9 24
- 0.576 2 1 ack 40 ------- 1 2.0 0.0 9 24
r 0.58432 1 2 tcp 1040 ------- 1 0.0 2.0 10 17
+ 0.58432 2 1 ack 40 ------- 1 2.0 0.0 10 25
- 0.58432 2 1 ack 40 ------- 1 2.0 0.0 10 25
r 0.59264 1 2 tcp 1040 ------- 1 0.0 2.0 11 18
+ 0.59264 2 1 ack 40 ------- 1 2.0 0.0 11 26
- 0.59264 2 1 ack 40 ------- 1 2.0 0.0 11 26
r 0.59968 2 1 ack 40 ------- 1 2.0 0.0 7 22
+ 0.59968 1 0 ack 40 ------- 1 2.0 0.0 7 22
- 0.59968 1 0 ack 40 ------- 1 2.0 0.0 7 22
r 0.60096 1 2 tcp 1040 ------- 1 0.0 2.0 12 19
+ 0.60096 2 1 ack 40 ------- 1 2.0 0.0 12 27
- 0.60096 2 1 ack 40 ------- 1 2.0 0.0 12 27
r 0.608 2 1 ack 40 ------- 1 2.0 0.0 8 23
+ 0.608 1 0 ack 40 ------- 1 2.0 0.0 8 23
- 0.608 1 0 ack 40 ------- 1 2.0 0.0 8 23
r 0.60928 1 2 tcp 1040 ------- 1 0.0 2.0 13 20
+ 0.60928 2 1 ack 40 ------- 1 2.0 0.0 13 28
- 0.60928 2 1 ack 40 ------- 1 2.0 0.0 13 28
r 0.61632 2 1 ack 40 ------- 1 2.0 0.0 9 24
+ 0.61632 1 0 ack 40 ------- 1 2.0 0.0 9 24
- 0.61632 1 0 ack 40 ------- 1 2.0 0.0 9 24
r 0.6176 1 2 tcp 1040 ------- 1 0.0 2.0 14 21
+ 0.6176 2 1 ack 40 ------- 1 2.0 0.0 14 29
- 0.6176 2 1 ack 40 ------- 1 2.0 0.0 14 29
r 0.61984 1 0 ack 40 ------- 1 2.0 0.0 7 22
+ 0.61984 0 1 tcp 1040 ------- 1 0.0 2.0 15 30
- 0.61984 0 1 tcp 1040 ------- 1 0.0 2.0 15 30
+ 0.61984 0 1 tcp 1040 ------- 1 0.0 2.0 16 31
- 0.624 0 1 tcp 1040 ------- 1 0.0 2.0 16 31
r 0.62464 2 1 ack 40 ------- 1 2.0 0.0 10 25
+ 0.62464 1 0 ack 40 ------- 1 2.0 0.0 10 25
- 0.62464 1 0 ack 40 ------- 1 2.0 0.0 10 25
r 0.62816 1 0 ack 40 ------- 1 2.0 0.0 8 23
+ 0.62816 0 1 tcp 1040 ------- 1 0.0 2.0 17 32
+ 0.62816 0 1 tcp 1040 ------- 1 0.0 2.0 18 33
- 0.62816 0 1 tcp 1040 ------- 1 0.0 2.0 17 32
- 0.63232 0 1 tcp 1040 ------- 1 0.0 2.0 18 33
r 0.63296 2 1 ack 40 ------- 1 2.0 0.0 11 26
+ 0.63296 1 0 ack 40 ------- 1 2.0 0.0 11 26
- 0.63296 1 0 ack 40 ------- 1 2.0 0.0 11 26
r 0.63648 1 0 ack 40 ------- 1 2.0 0.0 9 24
+ 0.63648 0 1 tcp 1040 ------- 1 0.0 2.0 19 34
+ 0.63648 0 1 tcp 1040 ------- 1 0.0 2.0 20 35
- 0.63648 0 1 tcp 1040 ------- 1 0.0 2.0 19 34
- 0.64064 0 1 tcp 1040 ------- 1 0.0 2.0 20 35
r 0.64128 2 1 ack 40 ------- 1 2.0 0.0 12 27
+ 0.64128 1 0 ack 40 ------- 1 2.0 0.0 12 27
- 0.64128 1 0 ack 40 ------- 1 2.0 0.0 12 27
r 0.644 0 1 tcp 1040 ------- 1 0.0 2.0 15 30
+ 0.644 1 2 tcp 1040 ------- 1 0.0 2.0 15 30
- 0.644 1 2 tcp 1040 ------- 1 0.0 2.0 15 30
r 0.6448 1 0 ack 40 ------- 1 2.0 0.0 10 25
+ 0.6448 0 1 tcp 1040 ------- 1 0.0 2.0 21 36
+ 0.6448 0 1 tcp 1040 ------- 1 0.0 2.0 22 37
- 0.6448 0 1 tcp 1040 ------- 1 0.0 2.0 21 36
r 0.64816 0 1 tcp 1040 ------- 1 0.0 2.0 16 31
+ 0.64816 1 2 tcp 1040 ------- 1 0.0 2.0 16 31
- 0.64896 0 1 tcp 1040 ------- 1 0.0 2.0 22 37
r 0.6496 2 1 ack 40 ------- 1 2.0 0.0 13 28
+ 0.6496 1 0 ack 40 ------- 1 2.0 0.0 13 28
- 0.6496 1 0 ack 40 ------- 1 2.0 0.0 13 28
- 0.65232 1 2 tcp 1040 ------- 1 0.0 2.0 16 31
r 0.65232 0 1 tcp 1040 ------- 1 0.0 2.0 17 32
+ 0.65232 1 2 tcp 1040 ------- 1 0.0 2.0 17 32
r 0.65312 1 0 ack 40 ------- 1 2.0 0.0 11 26
+ 0.65312 0 1 tcp 1040 ------- 1 0.0 2.0 23 38
+ 0.65312 0 1 tcp 1040 ------- 1 0.0 2.0 24 39
- 0.65312 0 1 tcp 1040 ------- 1 0.0 2.0 23 38
r 0.65648 0 1 tcp 1040 ------- 1 0.0 2.0 18 33
+ 0.65648 1 2 tcp 1040 ------- 1 0.0 2.0 18 33
- 0.65728 0 1 tcp 1040 ------- 1 0.0 2.0 24 39
r 0.65792 2 1 ack 40 ------- 1 2.0 0.0 14 29
+ 0.65792 1 0 ack 40 ------- 1 2.0 0.0 14 29
- 0.65792 1 0 ack 40 ------- 1 2.0 0.0 14 29
- 0.66064 1 2 tcp 1040 ------- 1 0.0 2.0 17 32
r 0.66064 0 1 tcp 1040 ------- 1 0.0 2.0 19 34
+ 0.66064 1 2 tcp 1040 ------- 1 0.0 2.0 19 34
r 0.66144 1 0 ack 40 ------- 1 2.0 0.0 12 27
+ 0.66144 0 1 tcp 1040 ------- 1 0.0 2.0 25 40
+ 0.66144 0 1 tcp 1040 ------- 1 0.0 2.0 26 41
- 0.66144 0 1 tcp 1040 ------- 1 0.0 2.0 25 40
r 0.6648 0 1 tcp 1040 ------- 1 0.0 2.0 20 35
+ 0.6648 1 2 tcp 1040 ------- 1 0.0 2.0 20 35
- 0.6656 0 1 tcp 1040 ------- 1 0.0 2.0 26 41
- 0.66896 1 2 tcp 1040 ------- 1 0.0 2.0 18 33
r 0.66896 0 1 tcp 1040 ------- 1 0.0 2.0 21 36
+ 0.66896 1 2 tcp 1040 ------- 1 0.0 2.0 21 36
r 0.66976 1 0 ack 40 ------- 1 2.0 0.0 13 28
+ 0.66976 0 1 tcp 1040 ------- 1 0.0 2.0 27 42
+ 0.66976 0 1 tcp 1040 ------- 1 0.0 2.0 28 43
- 0.66976 0 1 tcp 1040 ------- 1 0.0 2.0 27 42
r 0.67312 0 1 tcp 1040 ------- 1 0.0 2.0 22 37
+ 0.67312 1 2 tcp 1040 ------- 1 0.0 2.0 22 37
- 0.67392 0 1 tcp 1040 ------- 1 0.0 2.0 28 43
- 0.67728 1 2 tcp 1040 ------- 1 0.0 2.0 19 34
r 0.67728 0 1 tcp 1040 ------- 1 0.0 2.0 23 38
+ 0.67728 1 2 tcp 1040 ------- 1 0.0 2.0 23 38
r 0.67808 1 0 ack 40 ------- 1 2.0 0.0 14 29
+ 0.67808 0 1 tcp 1040 ------- 1 0.0 2.0 29 44
+ 0.67808 0 1 tcp 1040 ------- 1 0.0 2.0 30 45
- 0.67808 0 1 tcp 1040 ------- 1 0.0 2.0 29 44
r 0.68144 0 1 tcp 1040 ------- 1 0.0 2.0 24 39
+ 0.68144 1 2 tcp 1040 ------- 1 0.0 2.0 24 39
d 0.68144 1 2 tcp 1040 ------- 1 0.0 2.0 24 39
- 0.68224 0 1 tcp 1040 ------- 1 0.0 2.0 30 45
- 0.6856 1 2 tcp 1040 ------- 1 0.0 2.0 20 35
r 0.6856 0 1 tcp 1040 ------- 1 0.0 2.0 25 40
+ 0.6856 1 2 tcp 1040 ------- 1 0.0 2.0 25 40
r 0.68976 0 1 tcp 1040 ------- 1 0.0 2.0 26 41
+ 0.68976 1 2 tcp 1040 ------- 1 0.0 2.0 26 41
d 0.68976 1 2 tcp 1040 ------- 1 0.0 2.0 26 41
r 0.69232 1 2 tcp 1040 ------- 1 0.0 2.0 15 30
+ 0.69232 2 1 ack 40 ------- 1 2.0 0.0 15 46
- 0.69232 2 1 ack 40 ------- 1 2.0 0.0 15 46
- 0.69392 1 2 tcp 1040 ------- 1 0.0 2.0 21 36
r 0.69392 0 1 tcp 1040 ------- 1 0.0 2.0 27 42
+ 0.69392 1 2 tcp 1040 ------- 1 0.0 2.0 27 42
r 0.69808 0 1 tcp 1040 ------- 1 0.0 2.0 28 43
+ 0.69808 1 2 tcp 1040 ------- 1 0.0 2.0 28 43
d 0.69808 1 2 tcp 1040 ------- 1 0.0 2.0 28 43
r 0.70064 1 2 tcp 1040 ------- 1 0.0 2.0 16 31
+ 0.70064 2 1 ack 40 ------- 1 2.0 0.0 16 47
- 0.70064 2 1 ack 40 ------- 1 2.0 0.0 16 47
- 0.70224 1 2 tcp 1040 ------- 1 0.0 2.0 22 37
r 0.70224 0 1 tcp 1040 ------- 1 0.0 2.0 29 44
+ 0.70224 1 2 tcp 1040 ------- 1 0.0 2.0 29 44
r 0.7064 0 1 tcp 1040 ------- 1 0.0 2.0 30 45
+ 0.7064 1 2 tcp 1040 ------- 1 0.0 2.0 30 45
d 0.7064 1 2 tcp 1040 ------- 1 0.0 2.0 30 45
r 0.70896 1 2 tcp 1040 ------- 1 0.0 2.0 17 32
+ 0.70896 2 1 ack 40 ------- 1 2.0 0.0 17 48
- 0.70896 2 1 ack 40 ------- 1 2.0 0.0 17 48
- 0.71056 1 2 tcp 1040 ------- 1 0.0 2.0 23 38
r 0.71728 1 2 tcp 1040 ------- 1 0.0 2.0 18 33
+ 0.71728 2 1 ack 40 ------- 1 2.0 0.0 18 49
- 0.71728 2 1 ack 40 ------- 1 2.0 0.0 18 49
- 0.71888 1 2 tcp 1040 ------- 1 0.0 2.0 25 40
r 0.7256 1 2 tcp 1040 ------- 1 0.0 2.0 19 34
+ 0.7256 2 1 ack 40 ------- 1 2.0 0.0 19 50
- 0.7256 2 1 ack 40 ------- 1 2.0 0.0 19 50
- 0.7272 1 2 tcp 1040 ------- 1 0.0 2.0 27 42
r 0.73264 2 1 ack 40 ------- 1 2.0 0.0 15 46
+ 0.73264 1 0 ack 40 ------- 1 2.0 0.0 15 46
- 0.73264 1 0 ack 40 ------- 1 2.0 0.0 15 46
r 0.73392 1 2 tcp 1040 ------- 1 0.0 2.0 20 35
+ 0.73392 2 1 ack 40 ------- 1 2.0 0.0 20 51
- 0.73392 2 1 ack 40 ------- 1 2.0 0.0 20 51
- 0.73552 1 2 tcp 1040 ------- 1 0.0 2.0 29 44
r 0.74096 2 1 ack 40 ------- 1 2.0 0.0 16 47
+ 0.74096 1 0 ack 40 ------- 1 2.0 0.0 16 47
- 0.74096 1 0 ack 40 ------- 1 2.0 0.0 16 47
r 0.74224 1 2 tcp 1040 ------- 1 0.0 2.0 21 36
+ 0.74224 2 1 ack 40 ------- 1 2.0 0.0 21 52
- 0.74224 2 1 ack 40 ------- 1 2.0 0.0 21 52
r 0.74928 2 1 ack 40 ------- 1 2.0 0.0 17 48
+ 0.74928 1 0 ack 40 ------- 1 2.0 0.0 17 48
- 0.74928 1 0 ack 40 ------- 1 2.0 0.0 17 48
r 0.75056 1 2 tcp 1040 ------- 1 0.0 2.0 22 37
+ 0.75056 2 1 ack 40 ------- 1 2.0 0.0 22 53
- 0.75056 2 1 ack 40 ------- 1 2.0 0.0 22 53
r 0.7528 1 0 ack 40 ------- 1 2.0 0.0 15 46
+ 0.7528 0 1 tcp 1040 ------- 1 0.0 2.0 31 54
- 0.7528 0 1 tcp 1040 ------- 1 0.0 2.0 31 54
+ 0.7528 0 1 tcp 1040 ------- 1 0.0 2.0 32 55
- 0.75696 0 1 tcp 1040 ------- 1 0.0 2.0 32 55
r 0.7576 2 1 ack 40 ------- 1 2.0 0.0 18 49
+ 0.7576 1 0 ack 40 ------- 1 2.0 0.0 18 49
- 0.7576 1 0 ack 40 ------- 1 2.0 0.0 18 49
r 0.75888 1 2 tcp 1040 ------- 1 0.0 2.0 23 38
+ 0.75888 2 1 ack 40 ------- 1 2.0 0.0 23 56
- 0.75888 2 1 ack 40 ------- 1 2.0 0.0 23 56
r 0.76112 1 0 ack 40 ------- 1 2.0 0.0 16 47
+ 0.76112 0 1 tcp 1040 ------- 1 0.0 2.0 33 57
+ 0.76112 0 1 tcp 1040 ------- 1 0.0 2.0 34 58
- 0.76112 0 1 tcp 1040 ------- 1 0.0 2.0 33 57
- 0.76528 0 1 tcp 1040 ------- 1 0.0 2.0 34 58
r 0.76592 2 1 ack 40 ------- 1 2.0 0.0 19 50
+ 0.76592 1 0 ack 40 ------- 1 2.0 0.0 19 50
- 0.76592 1 0 ack 40 ------- 1 2.0 0.0 19 50
r 0.7672 1 2 tcp 1040 ------- 1 0.0 2.0 25 40
+ 0.7672 2 1 ack 40 ------- 1 2.0 0.0 23 59
- 0.7672 2 1 ack 40 ------- 1 2.0 0.0 23 59
r 0.76944 1 0 ack 40 ------- 1 2.0 0.0 17 48
+ 0.76944 0 1 tcp 1040 ------- 1 0.0 2.0 35 60
+ 0.76944 0 1 tcp 1040 ------- 1 0.0 2.0 36 61
- 0.76944 0 1 tcp 1040 ------- 1 0.0 2.0 35 60
- 0.7736 0 1 tcp 1040 ------- 1 0.0 2.0 36 61
r 0.77424 2 1 ack 40 ------- 1 2.0 0.0 20 51
+ 0.77424 1 0 ack 40 ------- 1 2.0 0.0 20 51
- 0.77424 1 0 ack 40 ------- 1 2.0 0.0 20 51
r 0.77552 1 2 tcp 1040 ------- 1 0.0 2.0 27 42
+ 0.77552 2 1 ack 40 ------- 1 2.0 0.0 23 62
- 0.77552 2 1 ack 40 ------- 1 2.0 0.0 23 62
r 0.77696 0 1 tcp 1040 ------- 1 0.0 2.0 31 54
+ 0.77696 1 2 tcp 1040 ------- 1 0.0 2.0 31 54
- 0.77696 1 2 tcp 1040 ------- 1 0.0 2.0 31 54
r 0.77776 1 0 ack 40 ------- 1 2.0 0.0 18 49
+ 0.77776 0 1 tcp 1040 ------- 1 0.0 2.0 37 63
+ 0.77776 0 1 tcp 1040 ------- 1 0.0 2.0 38 64
- 0.77776 0 1 tcp 1040 ------- 1 0.0 2.0 37 63
r 0.78112 0 1 tcp 1040 ------- 1 0.0 2.0 32 55
+ 0.78112 1 2 tcp 1040 ------- 1 0.0 2.0 32 55
- 0.78192 0 1 tcp 1040 ------- 1 0.0 2.0 38 64
r 0.78256 2 1 ack 40 ------- 1 2.0 0.0 21 52
+ 0.78256 1 0 ack 40 ------- 1 2.0 0.0 21 52
- 0.78256 1 0 ack 40 ------- 1 2.0 0.0 21 52
r 0.78384 1 2 tcp 1040 ------- 1 0.0 2.0 29 44
+ 0.78384 2 1 ack 40 ------- 1 2.0 0.0 23 65
- 0.78384 2 1 ack 40 ------- 1 2.0 0.0 23 65
- 0.78528 1 2 tcp 1040 ------- 1 0.0 2.0 32 55
r 0.78528 0 1 tcp 1040 ------- 1 0.0 2.0 33 57
+ 0.78528 1 2 tcp 1040 ------- 1 0.0 2.0 33 57
r 0.78608 1 0 ack 40 ------- 1 2.0 0.0 19 50
+ 0.78608 0 1 tcp 1040 ------- 1 0.0 2.0 39 66
- 0.78608 0 1 tcp 1040 ------- 1 0.0 2.0 39 66
r 0.78944 0 1 tcp 1040 ------- 1 0.0 2.0 34 58
+ 0.78944 1 2 tcp 1040 ------- 1 0.0 2.0 34 58
r 0.79088 2 1 ack 40 ------- 1 2.0 0.0 22 53
+ 0.79088 1 0 ack 40 ------- 1 2.0 0.0 22 53
- 0.79088 1 0 ack 40 ------- 1 2.0 0.0 22 53
- 0.7936 1 2 tcp 1040 ------- 1 0.0 2.0 33 57
r 0.7936 0 1 tcp 1040 ------- 1 0.0 2.0 35 60
+ 0.7936 1 2 tcp 1040 ------- 1 0.0 2.0 35 60
r 0.7944 1 0 ack 40 ------- 1 2.0 0.0 20 51
+ 0.7944 0 1 tcp 1040 ------- 1 0.0 2.0 40 67
- 0.7944 0 1 tcp 1040 ------- 1 0.0 2.0 40 67
r 0.79776 0 1 tcp 1040 ------- 1 0.0 2.0 36 61
+ 0.79776 1 2 tcp 1040 ------- 1 0.0 2.0 36 61
r 0.7992 2 1 ack 40 ------- 1 2.0 0.0 23 56
+ 0.7992 1 0 ack 40 ------- 1 2.0 0.0 23 56
- 0.7992 1 0 ack 40 ------- 1 2.0 0.0 23 56
- 0.80192 1 2 tcp 1040 ------- 1 0.0 2.0 34 58
r 0.80192 0 1 tcp 1040 ------- 1 0.0 2.0 37 63
+ 0.80192 1 2 tcp 1040 ------- 1 0.0 2.0 37 63
r 0.80272 1 0 ack 40 ------- 1 2.0 0.0 21 52
+ 0.80272 0 1 tcp 1040 ------- 1 0.0 2.0 41 68
- 0.80272 0 1 tcp 1040 ------- 1 0.0 2.0 41 68
r 0.80608 0 1 tcp 1040 ------- 1 0.0 2.0 38 64
+ 0.80608 1 2 tcp 1040 ------- 1 0.0 2.0 38 64
r 0.80752 2 1 ack 40 ------- 1 2.0 0.0 23 59
+ 0.80752 1 0 ack 40 ------- 1 2.0 0.0 23 59
- 0.80752 1 0 ack 40 ------- 1 2.0 0.0 23 59
- 0.81024 1 2 tcp 1040 ------- 1 0.0 2.0 35 60
r 0.81024 0 1 tcp 1040 ------- 1 0.0 2.0 39 66
+ 0.81024 1 2 tcp 1040 ------- 1 0.0 2.0 39 66
r 0.81104 1 0 ack 40 ------- 1 2.0 0.0 22 53
+ 0.81104 0 1 tcp 1040 ------- 1 0.0 2.0 42 69
- 0.81104 0 1 tcp 1040 ------- 1 0.0 2.0 42 69
r 0.81584 2 1 ack 40 ------- 1 2.0 0.0 23 62
+ 0.81584 1 0 ack 40 ------- 1 2.0 0.0 23 62
- 0.81584 1 0 ack 40 ------- 1 2.0 0.0 23 62
r 0.81856 0 1 tcp 1040 ------- 1 0.0 2.0 40 67
+ 0.81856 1 2 tcp 1040 ------- 1 0.0 2.0 40 67
d 0.81856 1 2 tcp 1040 ------- 1 0.0 2.0 40 67
- 0.81856 1 2 tcp 1040 ------- 1 0.0 2.0 36 61
r 0.81936 1 0 ack 40 ------- 1 2.0 0.0 23 56
+ 0.81936 0 1 tcp 1040 ------- 1 0.0 2.0 43 70
- 0.81936 0 1 tcp 1040 ------- 1 0.0 2.0 43 70
r 0.82416 2 1 ack 40 ------- 1 2.0 0.0 23 65
+ 0.82416 1 0 ack 40 ------- 1 2.0 0.0 23 65
- 0.82416 1 0 ack 40 ------- 1 2.0 0.0 23 65
r 0.82528 1 2 tcp 1040 ------- 1 0.0 2.0 31 54
+ 0.82528 2 1 ack 40 ------- 1 2.0 0.0 23 71
- 0.82528 2 1 ack 40 ------- 1 2.0 0.0 23 71
r 0.82688 0 1 tcp 1040 ------- 1 0.0 2.0 41 68
+ 0.82688 1 2 tcp 1040 ------- 1 0.0 2.0 41 68
- 0.82688 1 2 tcp 1040 ------- 1 0.0 2.0 37 63
r 0.82768 1 0 ack 40 ------- 1 2.0 0.0 23 59
r 0.8336 1 2 tcp 1040 ------- 1 0.0 2.0 32 55
+ 0.8336 2 1 ack 40 ------- 1 2.0 0.0 23 72
- 0.8336 2 1 ack 40 ------- 1 2.0 0.0 23 72
r 0.8352 0 1 tcp 1040 ------- 1 0.0 2.0 42 69
+ 0.8352 1 2 tcp 1040 ------- 1 0.0 2.0 42 69
- 0.8352 1 2 tcp 1040 ------- 1 0.0 2.0 38 64
r 0.836 1 0 ack 40 ------- 1 2.0 0.0 23 62
r 0.84192 1 2 tcp 1040 ------- 1 0.0 2.0 33 57
+ 0.84192 2 1 ack 40 ------- 1 2.0 0.0 23 73
- 0.84192 2 1 ack 40 ------- 1 2.0 0.0 23 73
r 0.84352 0 1 tcp 1040 ------- 1 0.0 2.0 43 70
+ 0.84352 1 2 tcp 1040 ------- 1 0.0 2.0 43 70
- 0.84352 1 2 tcp 1040 ------- 1 0.0 2.0 39 66
r 0.84432 1 0 ack 40 ------- 1 2.0 0.0 23 65
+ 0.84432 0 1 tcp 1040 ---A--- 1 0.0 2.0 24 74
- 0.84432 0 1 tcp 1040 ---A--- 1 0.0 2.0 24 74
r 0.85024 1 2 tcp 1040 ------- 1 0.0 2.0 34 58
+ 0.85024 2 1 ack 40 ------- 1 2.0 0.0 23 75
- 0.85024 2 1 ack 40 ------- 1 2.0 0.0 23 75
- 0.85184 1 2 tcp 1040 ------- 1 0.0 2.0 41 68
r 0.85856 1 2 tcp 1040 ------- 1 0.0 2.0 35 60
+ 0.85856 2 1 ack 40 ------- 1 2.0 0.0 23 76
- 0.85856 2 1 ack 40 ------- 1 2.0 0.0 23 76
- 0.86016 1 2 tcp 1040 ------- 1 0.0 2.0 42 69
r 0.8656 2 1 ack 40 ------- 1 2.0 0.0 23 71
+ 0.8656 1 0 ack 40 ------- 1 2.0 0.0 23 71
- 0.8656 1 0 ack 40 ------- 1 2.0 0.0 23 71
r 0.86688 1 2 tcp 1040 ------- 1 0.0 2.0 36 61
+ 0.86688 2 1 ack 40 ------- 1 2.0 0.0 23 77
- 0.86688 2 1 ack 40 ------- 1 2.0 0.0 23 77
r 0.86848 0 1 tcp 1040 ---A--- 1 0.0 2.0 24 74
+ 0.86848 1 2 tcp 1040 ---A--- 1 0.0 2.0 24 74
- 0.86848 1 2 tcp 1040 ------- 1 0.0 2.0 43 70
r 0.87392 2 1 ack 40 ------- 1 2.0 0.0 23 72
+ 0.87392 1 0 ack 40 ------- 1 2.0 0.0 23 72
- 0.87392 1 0 ack 40 ------- 1 2.0 0.0 23 72
r 0.8752 1 2 tcp 1040 ------- 1 0.0 2.0 37 63
+ 0.8752 2 1 ack 40 ------- 1 2.0 0.0 23 78
- 0.8752 2 1 ack 40 ------- 1 2.0 0.0 23 78
- 0.8768 1 2 tcp 1040 ---A--- 1 0.0 2.0 24 74
r 0.88224 2 1 ack 40 ------- 1 2.0 0.0 23 73
+ 0.88224 1 0 ack 40 ------- 1 2.0 0.0 23 73
- 0.88224 1 0 ack 40 ------- 1 2.0 0.0 23 73
r 0.88352 1 2 tcp 1040 ------- 1 0.0 2.0 38 64
+ 0.88352 2 1 ack 40 ------- 1 2.0 0.0 23 79
- 0.88352 2 1 ack 40 ------- 1 2.0 0.0 23 79
r 0.88576 1 0 ack 40 ------- 1 2.0 0.0 23 71
r 0.89056 2 1 ack 40 ------- 1 2.0 0.0 23 75
+ 0.89056 1 0 ack 40 ------- 1 2.0 0.0 23 75
- 0.89056 1 0 ack 40 ------- 1 2.0 0.0 23 75
r 0.89184 1 2 tcp 1040 ------- 1 0.0 2.0 39 66
+ 0.89184 2 1 ack 40 ------- 1 2.0 0.0 23 80
- 0.89184 2 1 ack 40 ------- 1 2.0 0.0 23 80
r 0.89408 1 0 ack 40 ------- 1 2.0 0.0 23 72
r 0.89888 2 1 ack 40 ------- 1 2.0 0.0 23 76
+ 0.89888 1 0 ack 40 ------- 1 2.0 0.0 23 76
- 0.89888 1 0 ack 40 ------- 1 2.0 0.0 23 76
r 0.90016 1 2 tcp 1040 ------- 1 0.0 2.0 41 68
+ 0.90016 2 1 ack 40 ------- 1 2.0 0.0 23 81
- 0.90016 2 1 ack 40 ------- 1 2.0 0.0 23 81
r 0.9024 1 0 ack 40 ------- 1 2.0 0.0 23 73
r 0.9072 2 1 ack 40 ------- 1 2.0 0.0 23 77
+ 0.9072 1 0 ack 40 ------- 1 2.0 0.0 23 77
- 0.9072 1 0 ack 40 ------- 1 2.0 0.0 23 77
r 0.90848 1 2 tcp 1040 ------- 1 0.0 2.0 42 69
+ 0.90848 2 1 ack 40 ------- 1 2.0 0.0 23 82
- 0.90848 2 1 ack 40 ------- 1 2.0 0.0 23 82
r 0.91072 1 0 ack 40 ------- 1 2.0 0.0 23 75
r 0.91552 2 1 ack 40 ------- 1 2.0 0.0 23 78
+ 0.91552 1 0 ack 40 ------- 1 2.0 0.0 23 78
- 0.91552 1 0 ack 40 ------- 1 2.0 0.0 23 78
r 0.9168 1 2 tcp 1040 ------- 1 0.0 2.0 43 70
+ 0.9168 2 1 ack 40 ------- 1 2.0 0.0 23 83
- 0.9168 2 1 ack 40 ------- 1 2.0 0.0 23 83
r 0.91904 1 0 ack 40 ------- 1 2.0 0.0 23 76
r 0.92384 2 1 ack 40 ------- 1 2.0 0.0 23 79
+ 0.92384 1 0 ack 40 ------- 1 2.0 0.0 23 79
- 0.92384 1 0 ack 40 ------- 1 2.0 0.0 23 79
r 0.92512 1 2 tcp 1040 ---A--- 1 0.0 2.0 24 74
+ 0.92512 2 1 ack 40 ------- 1 2.0 0.0 25 84
- 0.92512 2 1 ack 40 ------- 1 2.0 0.0 25 84
r 0.92736 1 0 ack 40 ------- 1 2.0 0.0 23 77
r 0.93216 2 1 ack 40 ------- 1 2.0 0.0 23 80
+ 0.93216 1 0 ack 40 ------- 1 2.0 0.0 23 80
- 0.93216 1 0 ack 40 ------- 1 2.0 0.0 23 80
r 0.93568 1 0 ack 40 ------- 1 2.0 0.0 23 78
r 0.94048 2 1 ack 40 ------- 1 2.0 0.0 23 81
+ 0.94048 1 0 ack 40 ------- 1 2.0 0.0 23 81
- 0.94048 1 0 ack 40 ------- 1 2.0 0.0 23 81
r 0.944 1 0 ack 40 ------- 1 2.0 0.0 23 79
r 0.9488 2 1 ack 40 ------- 1 2.0 0.0 23 82
+ 0.9488 1 0 ack 40 ------- 1 2.0 0.0 23 82
- 0.9488 1 0 ack 40 ------- 1 2.0 0.0 23 82
r 0.95232 1 0 ack 40 ------- 1 2.0 0.0 23 80
r 0.95712 2 1 ack 40 ------- 1 2.0 0.0 23 83
+ 0.95712 1 0 ack 40 ------- 1 2.0 0.0 23 83
- 0.95712 1 0 ack 40 ------- 1 2.0 0.0 23 83
r 0.96064 1 0 ack 40 ------- 1 2.0 0.0 23 81
r 0.96544 2 1 ack 40 ------- 1 2.0 0.0 25 84
+ 0.96544 1 0 ack 40 ------- 1 2.0 0.0 25 84
- 0.96544 1 0 ack 40 ------- 1 2.0 0.0 25 84
r 0.96896 1 0 ack 40 ------- 1 2.0 0.0 23 82
r 0.97728 1 0 ack 40 ------- 1 2.0 0.0 23 83
r 0.9856 1 0 ack 40 ------- 1 2.0 0.0 25 84
+ 0.9856 0 1 tcp 1040 ------- 1 0.0 2.0 26 85
- 0.9856 0 1 tcp 1040 ------- 1 0.0 2.0 26 85
+ 0.9856 0 1 tcp 1040 ------- 1 0.0 2.0 27 86
- 0.98976 0 1 tcp 1040 ------- 1 0.0 2.0 27 86
r 1.00976 0 1 tcp 1040 ------- 1 0.0 2.0 26 85
+ 1.00976 1 2 tcp 1040 ------- 1 0.0 2.0 26 85
- 1.00976 1 2 tcp 1040 ------- 1 0.0 2.0 26 85
r 1.01392 0 1 tcp 1040 ------- 1 0.0 2.0 27 86
+ 1.01392 1 2 tcp 1040 ------- 1 0.0 2.0 27 86
- 1.01808 1 2 tcp 1040 ------- 1 0.0 2.0 27 86
r 1.05808 1 2 tcp 1040 ------- 1 0.0 2.0 26 85
+ 1.05808 2 1 ack 40 ------- 1 2.0 0.0 27 87
- 1.05808 2 1 ack 40 ------- 1 2.0 0.0 27 87
r 1.0664 1 2 tcp 1040 ------- 1 0.0 2.0 27 86
+ 1.0664 2 1 ack 40 ------- 1 2.0 0.0 27 88
- 1.0664 2 1 ack 40 ------- 1 2.0 0.0 27 88
r 1.0984 2 1 ack 40 ------- 1 2.0 0.0 27 87
+ 1.0984 1 0 ack 40 ------- 1 2.0 0.0 27 87
- 1.0984 1 0 ack 40 ------- 1 2.0 0.0 27 87
r 1.10672 2 1 ack 40 ------- 1 2.0 0.0 27 88
+ 1.10672 1 0 ack 40 ------- 1 2.0 0.0 27 88
- 1.10672 1 0 ack 40 ------- 1 2.0 0.0 27 88
r 1.11856 1 0 ack 40 ------- 1 2.0 0.0 27 87
+ 1.11856 0 1 tcp 1040 ------- 1 0.0 2.0 28 89
- 1.11856 0 1 tcp 1040 ------- 1 0.0 2.0 28 89
+ 1.11856 0 1 tcp 1040 ------- 1 0.0 2.0 29 90
+ 1.11856 0 1 tcp 1040 ------- 1 0.0 2.0 30 91
- 1.12272 0 1 tcp 1040 ------- 1 0.0 2.0 29 90
- 1.12688 0 1 tcp 1040 ------- 1 0.0 2.0 30 91
r 1.12688 1 0 ack 40 ------- 1 2.0 0.0 27 88
+ 1.12688 0 1 tcp 1040 ------- 1 0.0 2.0 31 92
- 1.13104 0 1 tcp 1040 ------- 1 0.0 2.0 31 92
r 1.14272 0 1 tcp 1040 ------- 1 0.0 2.0 28 89
+ 1.14272 1 2 tcp 1040 ------- 1 0.0 2.0 28 89
- 1.14272 1 2 tcp 1040 ------- 1 0.0 2.0 28 89
r 1.14688 0 1 tcp 1040 ------- 1 0.0 2.0 29 90
+ 1.14688 1 2 tcp 1040 ------- 1 0.0 2.0 29 90
r 1.15104 0 1 tcp 1040 ------- 1 0.0 2.0 30 91
+ 1.15104 1 2 tcp 1040 ------- 1 0.0 2.0 30 91
- 1.15104 1 2 tcp 1040 ------- 1 0.0 2.0 29 90
r 1.1552 0 1 tcp 1040 ------- 1 0.0 2.0 31 92
+ 1.1552 1 2 tcp 1040 ------- 1 0.0 2.0 31 92
- 1.15936 1 2 tcp 1040 ------- 1 0.0 2.0 30 91
- 1.16768 1 2 tcp 1040 ------- 1 0.0 2.0 31 92
r 1.19104 1 2 tcp 1040 ------- 1 0.0 2.0 28 89
+ 1.19104 2 1 ack 40 ------- 1 2.0 0.0 29 93
- 1.19104 2 1 ack 40 ------- 1 2.0 0.0 29 93
r 1.19936 1 2 tcp 1040 ------- 1 0.0 2.0 29 90
+ 1.19936 2 1 ack 40 ------- 1 2.0 0.0 29 94
- 1.19936 2 1 ack 40 ------- 1 2.0 0.0 29 94
r 1.20768 1 2 tcp 1040 ------- 1 0.0 2.0 30 91
+ 1.20768 2 1 ack 40 ------- 1 2.0 0.0 39 95
- 1.20768 2 1 ack 40 ------- 1 2.0 0.0 39 95
r 1.216 1 2 tcp 1040 ------- 1 0.0 2.0 31 92
+ 1.216 2 1 ack 40 ------- 1 2.0 0.0 39 96
- 1.216 2 1 ack 40 ------- 1 2.0 0.0 39 96
r 1.23136 2 1 ack 40 ------- 1 2.0 0.0 29 93
+ 1.23136 1 0 ack 40 ------- 1 2.0 0.0 29 93
- 1.23136 1 0 ack 40 ------- 1 2.0 0.0 29 93
r 1.23968 2 1 ack 40 ------- 1 2.0 0.0 29 94
+ 1.23968 1 0 ack 40 ------- 1 2.0 0.0 29 94
- 1.23968 1 0 ack 40 ------- 1 2.0 0.0 29 94
r 1.248 2 1 ack 40 ------- 1 2.0 0.0 39 95
+ 1.248 1 0 ack 40 ------- 1 2.0 0.0 39 95
- 1.248 1 0 ack 40 ------- 1 2.0 0.0 39 95
r 1.25152 1 0 ack 40 ------- 1 2.0 0.0 29 93
+ 1.25152 0 1 tcp 1040 ------- 1 0.0 2.0 32 97
- 1.25152 0 1 tcp 1040 ------- 1 0.0 2.0 32 97
+ 1.25152 0 1 tcp 1040 ------- 1 0.0 2.0 33 98
- 1.25568 0 1 tcp 1040 ------- 1 0.0 2.0 33 98
r 1.25632 2 1 ack 40 ------- 1 2.0 0.0 39 96
+ 1.25632 1 0 ack 40 ------- 1 2.0 0.0 39 96
- 1.25632 1 0 ack 40 ------- 1 2.0 0.0 39 96
r 1.25984 1 0 ack 40 ------- 1 2.0 0.0 29 94
+ 1.25984 0 1 tcp 1040 ------- 1 0.0 2.0 34 99
- 1.25984 0 1 tcp 1040 ------- 1 0.0 2.0 34 99
r 1.26816 1 0 ack 40 ------- 1 2.0 0.0 39 95
+ 1.26816 0 1 tcp 1040 ------- 1 0.0 2.0 40 100
- 1.26816 0 1 tcp 1040 ------- 1 0.0 2.0 40 100
+ 1.26816 0 1 tcp 1040 ------- 1 0.0 2.0 41 101
+ 1.26816 0 1 tcp 1040 ------- 1 0.0 2.0 42 102
+ 1.26816 0 1 tcp 1040 ------- 1 0.0 2.0 43 103
+ 1.26816 0 1 tcp 1040 ------- 1 0.0 2.0 44 104
- 1.27232 0 1 tcp 1040 ------- 1 0.0 2.0 41 101
r 1.27568 0 1 tcp 1040 ------- 1 0.0 2.0 32 97
+ 1.27568 1 2 tcp 1040 ------- 1 0.0 2.0 32 97
- 1.27568 1 2 tcp 1040 ------- 1 0.0 2.0 32 97
- 1.27648 0 1 tcp 1040 ------- 1 0.0 2.0 42 102
r 1.27648 1 0 ack 40 ------- 1 2.0 0.0 39 96
+ 1.27648 0 1 tcp 1040 ------- 1 0.0 2.0 45 105
r 1.27984 0 1 tcp 1040 ------- 1 0.0 2.0 33 98
+ 1.27984 1 2 tcp 1040 ------- 1 0.0 2.0 33 98
- 1.28064 0 1 tcp 1040 ------- 1 0.0 2.0 43 103
r 1.284 0 1 tcp 1040 ------- 1 0.0 2.0 34 99
+ 1.284 1 2 tcp 1040 ------- 1 0.0 2.0 34 99
- 1.284 1 2 tcp 1040 ------- 1 0.0 2.0 33 98
- 1.2848 0 1 tcp 1040 ------- 1 0.0 2.0 44 104
- 1.28896 0 1 tcp 1040 ------- 1 0.0 2.0 45 105
r 1.29232 0 1 tcp 1040 ------- 1 0.0 2.0 40 100
+ 1.29232 1 2 tcp 1040 ------- 1 0.0 2.0 40 100
- 1.29232 1 2 tcp 1040 ------- 1 0.0 2.0 34 99
r 1.29648 0 1 tcp 1040 ------- 1 0.0 2.0 41 101
+ 1.29648 1 2 tcp 1040 ------- 1 0.0 2.0 41 101
r 1.30064 0 1 tcp 1040 ------- 1 0.0 2.0 42 102
+ 1.30064 1 2 tcp 1040 ------- 1 0.0 2.0 42 102
- 1.30064 1 2 tcp 1040 ------- 1 0.0 2.0 40 100
r 1.3048 0 1 tcp 1040 ------- 1 0.0 2.0 43 103
+ 1.3048 1 2 tcp 1040 ------- 1 0.0 2.0 43 103
r 1.30896 0 1 tcp 1040 ------- 1 0.0 2.0 44 104
+ 1.30896 1 2 tcp 1040 ------- 1 0.0 2.0 44 104
- 1.30896 1 2 tcp 1040 ------- 1 0.0 2.0 41 101
r 1.31312 0 1 tcp 1040 ------- 1 0.0 2.0 45 105
+ 1.31312 1 2 tcp 1040 ------- 1 0.0 2.0 45 105
- 1.31728 1 2 tcp 1040 ------- 1 0.0 2.0 42 102
r 1.324 1 2 tcp 1040 ------- 1 0.0 2.0 32 97
+ 1.324 2 1 ack 40 ------- 1 2.0 0.0 39 106
- 1.324 2 1 ack 40 ------- 1 2.0 0.0 39 106
- 1.3256 1 2 tcp 1040 ------- 1 0.0 2.0 43 103
r 1.33232 1 2 tcp 1040 ------- 1 0.0 2.0 33 98
+ 1.33232 2 1 ack 40 ------- 1 2.0 0.0 39 107
- 1.33232 2 1 ack 40 ------- 1 2.0 0.0 39 107
- 1.33392 1 2 tcp 1040 ------- 1 0.0 2.0 44 104
r 1.34064 1 2 tcp 1040 ------- 1 0.0 2.0 34 99
+ 1.34064 2 1 ack 40 ------- 1 2.0 0.0 39 108
- 1.34064 2 1 ack 40 ------- 1 2.0 0.0 39 108
- 1.34224 1 2 tcp 1040 ------- 1 0.0 2.0 45 105
r 1.34896 1 2 tcp 1040 ------- 1 0.0 2.0 40 100
+ 1.34896 2 1 ack 40 ------- 1 2.0 0.0 43 109
- 1.34896 2 1 ack 40 ------- 1 2.0 0.0 43 109
r 1.35728 1 2 tcp 1040 ------- 1 0.0 2.0 41 101
+ 1.35728 2 1 ack 40 ------- 1 2.0 0.0 43 110
- 1.35728 2 1 ack 40 ------- 1 2.0 0.0 43 110
r 1.36432 2 1 ack 40 ------- 1 2.0 0.0 39 106
+ 1.36432 1 0 ack 40 ------- 1 2.0 0.0 39 106
- 1.36432 1 0 ack 40 ------- 1 2.0 0.0 39 106
r 1.3656 1 2 tcp 1040 ------- 1 0.0 2.0 42 102
+ 1.3656 2 1 ack 40 ------- 1 2.0 0.0 43 111
- 1.3656 2 1 ack 40 ------- 1 2.0 0.0 43 111
r 1.37264 2 1 ack 40 ------- 1 2.0 0.0 39 107
+ 1.37264 1 0 ack 40 ------- 1 2.0 0.0 39 107
- 1.37264 1 0 ack 40 ------- 1 2.0 0.0 39 107
r 1.37392 1 2 tcp 1040 ------- 1 0.0 2.0 43 103
+ 1.37392 2 1 ack 40 ------- 1 2.0 0.0 43 112
- 1.37392 2 1 ack 40 ------- 1 2.0 0.0 43 112
r 1.38096 2 1 ack 40 ------- 1 2.0 0.0 39 108
+ 1.38096 1 0 ack 40 ------- 1 2.0 0.0 39 108
- 1.38096 1 0 ack 40 ------- 1 2.0 0.0 39 108
r 1.38224 1 2 tcp 1040 ------- 1 0.0 2.0 44 104
+ 1.38224 2 1 ack 40 ------- 1 2.0 0.0 44 113
- 1.38224 2 1 ack 40 ------- 1 2.0 0.0 44 113
r 1.38448 1 0 ack 40 ------- 1 2.0 0.0 39 106
+ 1.38448 0 1 tcp 1040 ------- 1 0.0 2.0 46 114